<VTKFile type="UnstructuredGrid" version="0.1" byte_order="BigEndian">
  <UnstructuredGrid>
    <Piece NumberOfPoints="34240" NumberOfCells="33836">
      <Points>
        <DataArray type="Float32" NumberOfComponents="3" Format="ascii">
  16.504720764372 11.916203205493 0.000000000000
  17.000000000000 11.916203205493 0.000000000000
  16.504720764372 12.500000000000 0.000000000000
  17.000000000000 12.500000000000 0.000000000000
  16.504720764372 11.360206260761 0.000000000000
  17.000000000000 11.360206260761 0.000000000000
  16.023867135344 11.916203205493 0.000000000000
  16.023867135344 12.500000000000 0.000000000000
  16.504720764372 10.830685359996 0.000000000000
  17.000000000000 10.830685359996 0.000000000000
  16.023867135344 11.360206260761 0.000000000000
  15.557018949990 11.916203205493 0.000000000000
  15.557018949990 12.500000000000 0.000000000000
  16.504720764372 10.326379740030 0.000000000000
  17.000000000000 10.326379740030 0.000000000000
  16.023867135344 10.830685359996 0.000000000000
  15.557018949990 11.360206260761 0.000000000000
  15.103768283196 11.916203205493 0.000000000000
  15.103768283196 12.500000000000 0.000000000000
  16.504720764372 9.846088676557 0.000000000000
  17.000000000000 9.846088676557 0.000000000000
  16.023867135344 10.326379740030 0.000000000000
  15.557018949990 10.830685359996 0.000000000000
  15.103768283196 11.360206260761 0.000000000000
  14.663719094361 11.916203205493 0.000000000000
  14.663719094361 12.500000000000 0.000000000000
  16.504720764372 9.388668614776 0.000000000000
  17.000000000000 9.388668614776 0.000000000000
  16.023867135344 9.846088676557 0.000000000000
  15.557018949990 10.326379740030 0.000000000000
  15.103768283196 10.830685359996 0.000000000000
  14.663719094361 11.360206260761 0.000000000000
  14.236486873269 11.916203205493 0.000000000000
  14.236486873269 12.500000000000 0.000000000000
  16.504720764372 8.953030458788 0.000000000000
  17.000000000000 8.953030458788 0.000000000000
  16.023867135344 9.388668614776 0.000000000000
  15.557018949990 9.846088676557 0.000000000000
  15.103768283196 10.326379740030 0.000000000000
  14.663719094361 10.830685359996 0.000000000000
  14.236486873269 11.360206260761 0.000000000000
  13.821698306350 11.916203205493 0.000000000000
  13.821698306350 12.500000000000 0.000000000000
  16.504720764372 8.538136979705 0.000000000000
  17.000000000000 8.538136979705 0.000000000000
  16.023867135344 8.953030458788 0.000000000000
  15.557018949990 9.388668614776 0.000000000000
  15.103768283196 9.846088676557 0.000000000000
  14.663719094361 10.326379740030 0.000000000000
  14.236486873269 10.830685359996 0.000000000000
  13.821698306350 11.360206260761 0.000000000000
  13.418990961620 11.916203205493 0.000000000000
  13.418990961620 12.500000000000 0.000000000000
  16.504720764372 8.143000337050 0.000000000000
  17.000000000000 8.143000337050 0.000000000000
  16.023867135344 8.538136979705 0.000000000000
  15.557018949990 8.953030458788 0.000000000000
  15.103768283196 9.388668614776 0.000000000000
  14.663719094361 9.846088676557 0.000000000000
  14.236486873269 10.326379740030 0.000000000000
  13.821698306350 10.830685359996 0.000000000000
  13.418990961620 11.360206260761 0.000000000000
  13.028012957478 11.916203205493 0.000000000000
  13.028012957478 12.500000000000 0.000000000000
  16.504720764372 7.766679722435 0.000000000000
  17.000000000000 7.766679722435 0.000000000000
  16.023867135344 8.143000337050 0.000000000000
  15.557018949990 8.538136979705 0.000000000000
  15.103768283196 8.953030458788 0.000000000000
  14.663719094361 9.388668614776 0.000000000000
  14.236486873269 9.846088676557 0.000000000000
  13.821698306350 10.326379740030 0.000000000000
  13.418990961620 10.830685359996 0.000000000000
  13.028012957478 11.360206260761 0.000000000000
  12.648422660004 11.916203205493 0.000000000000
  12.648422660004 12.500000000000 0.000000000000
  16.504720764372 7.408279136900 0.000000000000
  17.000000000000 7.408279136900 0.000000000000
  16.023867135344 7.766679722435 0.000000000000
  15.557018949990 8.143000337050 0.000000000000
  15.103768283196 8.538136979705 0.000000000000
  14.663719094361 8.953030458788 0.000000000000
  14.236486873269 9.388668614776 0.000000000000
  13.821698306350 9.846088676557 0.000000000000
  13.418990961620 10.326379740030 0.000000000000
  13.028012957478 10.830685359996 0.000000000000
  12.648422660004 11.360206260761 0.000000000000
  12.279888391039 11.916203205493 0.000000000000
  12.279888391039 12.500000000000 0.000000000000
  16.504720764372 7.066945245154 0.000000000000
  17.000000000000 7.066945245154 0.000000000000
  16.023867135344 7.408279136900 0.000000000000
  15.557018949990 7.766679722435 0.000000000000
  15.103768283196 8.143000337050 0.000000000000
  14.663719094361 8.538136979705 0.000000000000
  14.236486873269 8.953030458788 0.000000000000
  13.821698306350 9.388668614776 0.000000000000
  13.418990961620 9.846088676557 0.000000000000
  13.028012957478 10.326379740030 0.000000000000
  12.648422660004 10.830685359996 0.000000000000
  12.279888391039 11.360206260761 0.000000000000
  11.922088128984 11.916203205493 0.000000000000
  11.922088128984 12.500000000000 0.000000000000
  16.504720764372 6.741865348537 0.000000000000
  17.000000000000 6.741865348537 0.000000000000
  16.023867135344 7.066945245154 0.000000000000
  15.557018949990 7.408279136900 0.000000000000
  15.103768283196 7.766679722435 0.000000000000
  14.663719094361 8.143000337050 0.000000000000
  14.236486873269 8.538136979705 0.000000000000
  13.821698306350 8.953030458788 0.000000000000
  13.418990961620 9.388668614776 0.000000000000
  13.028012957478 9.846088676557 0.000000000000
  12.648422660004 10.326379740030 0.000000000000
  12.279888391039 10.830685359996 0.000000000000
  11.922088128984 11.360206260761 0.000000000000
  11.574709234197 11.916203205493 0.000000000000
  11.574709234197 12.500000000000 0.000000000000
  16.504720764372 6.432265450209 0.000000000000
  17.000000000000 6.432265450209 0.000000000000
  16.023867135344 6.741865348537 0.000000000000
  15.557018949990 7.066945245154 0.000000000000
  15.103768283196 7.408279136900 0.000000000000
  14.663719094361 7.766679722435 0.000000000000
  14.236486873269 8.143000337050 0.000000000000
  13.821698306350 8.538136979705 0.000000000000
  13.418990961620 8.953030458788 0.000000000000
  13.028012957478 9.388668614776 0.000000000000
  12.648422660004 9.846088676557 0.000000000000
  12.279888391039 10.326379740030 0.000000000000
  11.922088128984 10.830685359996 0.000000000000
  11.574709234197 11.360206260761 0.000000000000
  11.237448172711 11.916203205493 0.000000000000
  11.237448172711 12.500000000000 0.000000000000
  16.504720764372 6.137408400570 0.000000000000
  17.000000000000 6.137408400570 0.000000000000
  16.023867135344 6.432265450209 0.000000000000
  15.557018949990 6.741865348537 0.000000000000
  15.103768283196 7.066945245154 0.000000000000
  14.663719094361 7.408279136900 0.000000000000
  14.236486873269 7.766679722435 0.000000000000
  13.821698306350 8.143000337050 0.000000000000
  13.418990961620 8.538136979705 0.000000000000
  13.028012957478 8.953030458788 0.000000000000
  12.648422660004 9.388668614776 0.000000000000
  12.279888391039 9.846088676557 0.000000000000
  11.922088128984 10.326379740030 0.000000000000
  11.574709234197 10.830685359996 0.000000000000
  11.237448172711 11.360206260761 0.000000000000
  10.910010246586 11.916203205493 0.000000000000
  10.910010246586 12.500000000000 0.000000000000
  16.504720764372 5.856592160498 0.000000000000
  17.000000000000 5.856592160498 0.000000000000
  16.023867135344 6.137408400570 0.000000000000
  15.557018949990 6.432265450209 0.000000000000
  15.103768283196 6.741865348537 0.000000000000
  14.663719094361 7.066945245154 0.000000000000
  14.236486873269 7.408279136900 0.000000000000
  13.821698306350 7.766679722435 0.000000000000
  13.418990961620 8.143000337050 0.000000000000
  13.028012957478 8.538136979705 0.000000000000
  12.648422660004 8.953030458788 0.000000000000
  12.279888391039 9.388668614776 0.000000000000
  11.922088128984 9.846088676557 0.000000000000
  11.574709234197 10.326379740030 0.000000000000
  11.237448172711 10.830685359996 0.000000000000
  10.910010246586 11.360206260761 0.000000000000
  10.592109349072 11.916203205493 0.000000000000
  10.592109349072 12.500000000000 0.000000000000
  16.504720764372 5.589148125286 0.000000000000
  17.000000000000 5.589148125286 0.000000000000
  16.023867135344 5.856592160498 0.000000000000
  15.557018949990 6.137408400570 0.000000000000
  15.103768283196 6.432265450209 0.000000000000
  14.663719094361 6.741865348537 0.000000000000
  14.236486873269 7.066945245154 0.000000000000
  13.821698306350 7.408279136900 0.000000000000
  13.418990961620 7.766679722435 0.000000000000
  13.028012957478 8.143000337050 0.000000000000
  12.648422660004 8.538136979705 0.000000000000
  12.279888391039 8.953030458788 0.000000000000
  11.922088128984 9.388668614776 0.000000000000
  11.574709234197 9.846088676557 0.000000000000
  11.237448172711 10.326379740030 0.000000000000
  10.910010246586 10.830685359996 0.000000000000
  10.592109349072 11.360206260761 0.000000000000
  10.283467702055 11.916203205493 0.000000000000
  10.283467702055 12.500000000000 0.000000000000
  16.504720764372 5.334439521214 0.000000000000
  17.000000000000 5.334439521214 0.000000000000
  16.023867135344 5.589148125286 0.000000000000
  15.557018949990 5.856592160498 0.000000000000
  15.103768283196 6.137408400570 0.000000000000
  14.663719094361 6.432265450209 0.000000000000
  14.236486873269 6.741865348537 0.000000000000
  13.821698306350 7.066945245154 0.000000000000
  13.418990961620 7.408279136900 0.000000000000
  13.028012957478 7.766679722435 0.000000000000
  12.648422660004 8.143000337050 0.000000000000
  12.279888391039 8.538136979705 0.000000000000
  11.922088128984 8.953030458788 0.000000000000
[...]
      <PointData Scalars="scalars">
        <DataArray type="Float32" Name="Velocity" NumberOfComponents="2" Format="ascii">
       1.00998 0.00740732
       1.01047 0.00744843
       1.00945 0.00689769
       1.00987 0.0069552
       1.01049 0.00807379
       1.01105 0.00812211
       1.00947 0.00733523
       1.00901 0.00682994
       1.01114 0.0086591
       1.01174 0.00873338
       1.00993 0.00796355
       1.00904 0.00729106
       1.00863 0.00680418
       1.012 0.00932468
       1.01269 0.00943414
       1.01056 0.0084841
       1.00949 0.00788428
       1.00859 0.00723884
       1.00824 0.0067622
       1.01269 0.00998618
       1.01347 0.0101581
       1.01137 0.00906097
       1.01013 0.00837095
       1.00901 0.00780668
       1.00822 0.00715986
       1.0079 0.0067229
       1.01352 0.010685
       1.0144 0.0109469
       1.01206 0.00958965
       1.01093 0.00891463
       1.00965 0.00825834
       1.00865 0.0076702
       1.00787 0.00711205
       1.00759 0.00669276
       1.01427 0.0113736
       1.01528 0.0117719
       1.01289 0.0101092
       1.01163 0.00941696
       1.0104 0.0087686
       1.0093 0.00807176
       1.00828 0.0076009
       1.00755 0.00698603
       1.0073 0.00661409
       1.01501 0.0120646
       1.01614 0.0126563
       1.01369 0.0105514
       1.0125 0.00993016
       1.01106 0.0092322
       1.01005 0.00852805
       1.00893 0.00797806
       1.00798 0.00741083
       1.0073 0.00692323
       1.00707 0.00657728
       1.01561 0.0127008
       1.01687 0.0135701
       1.01454 0.0109197
       1.01337 0.0103979
       1.01188 0.00970615
       1.01074 0.00893259
       1.00964 0.00841634
       1.00864 0.00773937
       1.00771 0.0073292
       1.00703 0.0067536
       1.00683 0.00645434
       1.01611 0.0132548
       1.01749 0.0145086
       1.01537 0.0111432
       1.01431 0.0108479
       1.0127 0.010131
       1.0116 0.00933967
       1.01031 0.00881613
       1.00933 0.0081407
       1.00835 0.00764551
       1.00745 0.00708796
       1.00687 0.00664557
       1.00668 0.00638615
       1.01642 0.0136515
       1.01788 0.015431
       1.01623 0.0111926
       1.01527 0.0112372
       1.01359 0.0105311
       1.0125 0.00968616
       1.01114 0.00924469
       1.01 0.00851679
       1.00899 0.00803236
       1.0081 0.00732837
       1.00731 0.00695284
       1.00665 0.00649115
       1.00649 0.00626774
       1.01653 0.0138285
       1.01801 0.0163029
       1.01708 0.0109923
       1.01629 0.0115772
       1.0145 0.0108468
       1.01352 0.00999777
       1.01203 0.00965429
       1.01081 0.00893582
       1.00961 0.00839106
       1.00873 0.00764186
       1.00793 0.00719713
       1.00707 0.00674109
       1.00657 0.00630599
       1.0064 0.0061398
       1.01641 0.0136874
       1.01779 0.0170595
       1.01796 0.0104962
       1.01735 0.0118338
       1.01549 0.0110709
       1.01465 0.0102226
       1.01301 0.0100942
       1.01166 0.00935222
       1.01038 0.00878662
       1.00936 0.00794006
       1.00851 0.0075282
       1.00768 0.00690168
       1.00703 0.00649408
       1.00643 0.00622451
       1.00629 0.00608394
       1.01605 0.013133
       1.01718 0.0176321
       1.01887 0.00963537
       1.01845 0.0120035
       1.01653 0.0111446
       1.01594 0.0103671
       1.01408 0.0105394
       1.01261 0.00980574
       1.01119 0.00917427
       1.01012 0.00829854
       1.00907 0.00785544
       1.00823 0.00712185
       1.00767 0.0066242
       1.00686 0.00638633
       1.00639 0.00599251
       1.00624 0.00591585
       1.01542 0.0120439
       1.01608 0.0179289
       1.01984 0.0083667
       1.01957 0.0120513
       1.01767 0.0110406
       1.01739 0.0103927
       1.01528 0.0110268
       1.01363 0.0102555
       1.0121 0.0096039
       1.0109 0.00869192
       1.00973 0.00824607
       1.00879 0.00731339
       1.00821 0.0068355
       1.00745 0.00647549
       1.00688 0.00606283
       1.00635 0.00597416
       1.0062 0.0059241
       1.01452 0.010307
       1.01448 0.0178591
       1.02089 0.00663279
       1.02074 0.0119669
       1.01893 0.0106934
       1.01906 0.0103068
       1.01659 0.0115407
       1.01479 0.0107171
       1.01312 0.0100586
       1.01174 0.00918515
       1.01039 0.00866681
       1.00944 0.00754143
       1.00875 0.00704715
       1.00793 0.00661639
       1.00752 0.00606443
       1.00682 0.006031
       1.00633 0.00577292
       1.00618 0.00577827
       1.01337 0.00781704
       1.01233 0.0173277
       1.02202 0.00438794
       1.02194 0.0117265
       1.02035 0.0100551
       1.02096 0.0100931
       1.01805 0.0120928
       1.01611 0.01116
       1.01427 0.0105872
       1.01262 0.00977891
       1.01106 0.00916359
       1.0101 0.0077809
       1.00934 0.00732363
       1.00842 0.00672144
       1.00804 0.00611806
       1.00741 0.00603251
       1.00684 0.00574189
       1.00637 0.00577163
       1.00621 0.00581249
       1.01205 0.00449503
       1.00965 0.0162374
       1.02322 0.00158874
       1.0232 0.0113173
       1.02195 0.0090627
       1.02315 0.00975736
       1.01967 0.012653
       1.01766 0.0115895
       1.01557 0.0112076
       1.01355 0.0105343
       1.01177 0.00971833
       1.01077 0.00808894
       1.00992 0.00764361
       1.00897 0.00684152
       1.00858 0.00614857
       1.00787 0.00608077
       1.00749 0.00563603
       1.0069 0.00571337
       1.00638 0.00565365
       1.00622 0.0057354
       1.01054 0.000248087
       1.00637 0.0144704
       1.02453 -0.00175866
       1.02448 0.0106954
       1.02378 0.00768449
       1.02562 0.00926932
       1.02152 0.0132071
       1.0195 0.0119811
       1.01704 0.0119922
       1.01452 0.0114722
       1.01249 0.0103682
       1.01146 0.00846757
       1.01045 0.00805118
       1.0095 0.00694806
       1.00917 0.00620922
       1.00835 0.0060946
       1.008 0.00554961
       1.00753 0.00560768
       1.00693 0.00553477
       1.00647 0.00564479
       1.00629 0.00576818
       1.0088 -0.00501943
       1.00249 0.0119255
       1.02601 -0.00562185
       1.02574 0.00982024
       1.02589 0.00587844
       1.02839 0.00859853
       1.02368 0.0137059
       1.0217 0.0123447
       1.01869 0.0130058
       1.01552 0.0126443
       1.01325 0.0111189
       1.01213 0.00897208
       1.01093 0.00853726
       1.01 0.00707669
       1.00973 0.00628444
       1.00886 0.00611072
       1.00857 0.00540966
       1.00801 0.00553645
       1.00759 0.00534951
       1.00706 0.00547919
       1.00653 0.00560574
       1.00634 0.00575938
       1.00685 -0.0113329
       0.998197 0.00857157
       1.02758 -0.00998519
       1.02695 0.00867215
       1.02832 0.00358395
       1.0315 0.00769602
       1.02625 0.0140931
       1.02434 0.0126993
       1.02054 0.0143467
       1.01656 0.0140745
       1.01403 0.0120123
       1.01277 0.00963051
       1.01134 0.00913785
       1.01047 0.00721729
       1.01022 0.00640723
       1.00934 0.00609866
       1.00917 0.00525262
       1.00855 0.00543122
       1.00811 0.00516452
       1.00774 0.00526735
       1.00713 0.00540478
       1.00664 0.00559672
       1.00644 0.0057901
       1.00491 -0.0185714
       0.993755 0.00443876
       1.02902 -0.0148785
       1.02819 0.00726456
       1.03102 0.000695622
       1.03504 0.0065148
       1.02933 0.0142861
       1.02752 0.0131156
       1.02257 0.0160985
       1.01764 0.0158045
       1.01486 0.0130749
       1.01333 0.010508
       1.01165 0.00986264
       1.01086 0.00739991
       1.01064 0.00656548
       1.00976 0.00606878
       1.00976 0.00506505
       1.0091 0.00531992
       1.00871 0.00491067
       1.00828 0.00506815
       1.00782 0.00515488
       1.00729 0.00534341
       1.00674 0.00560252
       1.00652 0.00582126
       1.00315 -0.0265524
       0.989158 -0.000480859
       1.0301 -0.0202871
       1.02951 0.00555768
       1.03399 -0.00288038
       1.03913 0.00496424
       1.03306 0.014232
       1.0313 0.0136764
       1.02477 0.018357
       1.01882 0.0178527
       1.01572 0.0143665
       1.01378 0.0116636
       1.01181 0.0107458
       1.01115 0.00762962
       1.01095 0.00677216
       1.01015 0.00599693
       1.0103 0.00486736
       1.00962 0.00518057
       1.00935 0.00460498
       1.0089 0.00482591
       1.00837 0.00489898
       1.00801 0.00504856
       1.00741 0.00532476
       1.00687 0.0056063
       1.00664 0.0058574
       1.00138 -0.0351914
       0.984109 -0.00625587
       1.03083 -0.0260786
       1.03078 0.0034033
       1.03735 -0.00720049
       1.04382 0.00291305
       1.03759 0.0139136
       1.03571 0.014482
       1.02716 0.0211988
       1.02015 0.020242
       1.01663 0.0159613
       1.01407 0.0131855
       1.01179 0.0118056
       1.01128 0.00792708
       1.01113 0.0070138
       1.01045 0.00588703
       1.0108 0.0046522
       1.01008 0.00500789
       1.00999 0.00423112
       1.00955 0.00456082
       1.00902 0.00457912
       1.0086 0.00474502
       1.00813 0.00501562
       1.00758 0.00528506
       1.007 0.00562924
       1.00674 0.00590301
       0.999074 -0.0445394
       0.978437 -0.0128802
       1.03146 -0.0320576
       1.0317 0.000578249
       1.04136 -0.0122974
       1.04908 0.000211577
       1.0431 0.0133538
       1.04073 0.0156257
       1.02982 0.024684
       1.0217 0.0229921
       1.01754 0.0179815
       1.01412 0.0151621
       1.01151 0.0130687
       1.01121 0.00829468
       1.01112 0.00728534
       1.01066 0.00573169
       1.01119 0.0044248
       1.0105 0.00477143
       1.01062 0.00378804
       1.01018 0.00426611
       1.00971 0.00419897
       1.00932 0.00438716
       1.00873 0.00469634
       1.00833 0.00493519
       1.00772 0.00528544
       1.00714 0.00564635
       1.00687 0.00594429
       0.995736 -0.0546416
       0.972408 -0.0201228
       1.03219 -0.0381302
       1.03208 -0.00308122
       1.04621 -0.0182612
       1.05491 -0.00323176
       1.04973 0.0125627
       1.04638 0.0172069
       1.03285 0.0288251
       1.02356 0.0261641
       1.01842 0.0205821
       1.01384 0.0176949
       1.01093 0.0145451
       1.01088 0.00873751
       1.01091 0.00757198
       1.01072 0.00553475
       1.01146 0.00417079
       1.01086 0.004448
       1.01125 0.00326647
       1.01078 0.00393402
       1.01042 0.00374467
       1.01007 0.00398333
       1.00946 0.00432536
       1.00897 0.0045642
       1.00849 0.00492571
       1.0079 0.00527221
       1.00728 0.00567487
       1.00699 0.00599202
       0.991198 -0.0654094
       0.966449 -0.027551
       1.03297 -0.0443927
       1.03206 -0.00759324
       1.0518 -0.0252662
       1.06141 -0.0074259
       1.05753 0.0115129
       1.05273 0.0193101
       1.03638 0.0336064
       1.02581 0.0298711
       1.01915 0.0239637
       1.01313 0.0208733
       1.00998 0.0162399
       1.01025 0.0092487
       1.01043 0.00786643
       1.0106 0.00529208
       1.01155 0.00386727
       1.01115 0.00400833
       1.01183 0.00266342
       1.01136 0.00354778
       1.01113 0.00319491
       1.01084 0.00353773
       1.01022 0.00390002
       1.00976 0.00413706
       1.00914 0.00454879
       1.00868 0.00488744
       1.00806 0.00527983
       1.00743 0.00569719
       1.00712 0.00603172
       0.985534 -0.0766369
       0.960684 -0.0347063
       1.03347 -0.0510794
       1.0321 -0.0128447
       1.0577 -0.03352
       1.06879 -0.0123275
       1.06643 0.0101286
       1.05997 0.0219887
       1.04059 0.0390105
       1.02849 0.0342991
       1.0196 0.0283564
       1.01186 0.0247715
       1.00858 0.0181439
       1.00922 0.00982081
       1.00964 0.00815993
       1.01024 0.00499207
       1.01146 0.00348053
       1.01136 0.00342388
       1.01236 0.00197652
       1.01189 0.00307976
       1.01189 0.0025346
       1.01161 0.00303871
       1.01101 0.00341861
       1.0106 0.00364929
       1.00995 0.00412952
       1.00937 0.00447667
       1.00886 0.00488426
       1.00824 0.00528211
       1.00758 0.00572759
       1.00725 0.00607674
       0.978864 -0.0881059
       0.954877 -0.0412753
       1.0333 -0.0584379
       1.03262 -0.0186899
       1.0634 -0.0431492
       1.07724 -0.0179279
       1.07631 0.00832421
       1.06835 0.0252272
       1.04566 0.0450792
       1.03158 0.0396985
       1.01957 0.0340137
       1.00993 0.02943
       1.00666 0.0202425
       1.00773 0.0104419
       1.00848 0.00843922
       1.00959 0.00460942
       1.01116 0.00296895
       1.01148 0.00267364
       1.01278 0.00119268
       1.01239 0.00249906
       1.01265 0.0017423
       1.0124 0.0024872
       1.01183 0.0028519
       1.01149 0.00311177
       1.0108 0.00366046
       1.01023 0.0040182
       1.00957 0.00446355
       1.00905 0.00487495
       1.0084 0.00529607
       1.00773 0.00574796
       1.00738 0.00610903
       0.971297 -0.0996306
       0.948828 -0.0471221
       1.03213 -0.0666521
       1.03376 -0.0250284
       1.06854 -0.0541364
       1.08679 -0.0242979
       1.08704 0.00604021
       1.07811 0.0289384
       1.0518 0.051944
       1.03493 0.0463916
       1.01887 0.0411778
       1.00723 0.0348619
       1.00413 0.022513
       1.00567 0.011097
       1.0069 0.0086754
       1.0086 0.00410514
       1.01064 0.00229207
       1.01146 0.00173683
       1.01309 0.000297302
       1.01284 0.00175657
       1.01345 0.000812782
       1.01319 0.00186425
       1.01271 0.00219049
       1.0124 0.0025035
       1.0117 0.00315518
       1.01114 0.00349777
       1.01046 0.00400696
       1.00979 0.00443908
       1.00923 0.00488041
       1.00858 0.00530317
       1.00788 0.00577709
       1.00751 0.0061479
       0.96297 -0.111032
       0.942587 -0.0522021
       1.02971 -0.0758253
       1.03542 -0.0318303
       1.073 -0.0663309
       1.0972 -0.0315723
       1.09852 0.00327836
       1.08931 0.0329966
       1.05914 0.0598282
       1.03836 0.0547675
       1.01724 0.0500547
       1.00365 0.0410544
       1.00086 0.024927
       1.00296 0.0117591
       1.00484 0.00881462
       1.00725 0.00343631
       1.00986 0.00140669
       1.01128 0.000602896
       1.01325 -0.000746425
       1.01328 0.000812446
       1.01424 -0.000271201
       1.01399 0.00116051
       1.01363 0.00140208
       1.01339 0.00183573
       1.01263 0.00258417
       1.01211 0.00293369
       1.01139 0.00350075
       1.01071 0.00396781
       1.00998 0.00443315
       1.00942 0.0048832
       1.00874 0.00532174
       1.00803 0.00579295
       1.00765 0.00617093
       0.954026 -0.122123
       0.936277 -0.0564822
       1.02591 -0.0859898
       1.03735 -0.0391087
       1.07678 -0.079509
       1.10799 -0.0398817
       1.11065 0.000103309
       1.1017 0.0373466
       1.06753 0.0690093
       1.04167 0.0652575
       1.01445 0.0608047
       0.999053 0.047969
       0.996716 0.0274448
       0.999517 0.0123761
       1.00227 0.00878057
       1.00553 0.00255771
       1.00881 0.000279336
       1.01089 -0.000745103
       1.01327 -0.00198088
       1.01368 -0.000381666
       1.01503 -0.00151089
       1.01478 0.000337675
       1.01463 0.000477908
       1.01441 0.00109312
       1.01364 0.0019539
       1.01314 0.00229622
       1.01238 0.00297106
       1.01168 0.00344012
       1.01094 0.00395661
       1.0102 0.00443087
       1.00959 0.00489866
       1.00891 0.00532938
       1.00818 0.00581738
       1.00777 0.00620061
       0.944595 -0.132732
       0.929923 -0.0599349
       1.02069 -0.0971138
       1.03933 -0.0468839
       1.07982 -0.0934131
       1.11862 -0.049303
       1.12332 -0.0033769
       1.11474 0.0421235
       1.07629 0.0798213
       1.04448 0.078248
       1.01034 0.0735543
       0.993265 0.0555412
       0.991531 0.0299984
       0.995318 0.0128651
       0.999177 0.00847722
       1.00343 0.00143387
       1.00744 -0.00112047
       1.01028 -0.00232283
       1.01312 -0.00346838
       1.01407 -0.00185514
       1.01579 -0.00292746
       1.0156 -0.000631672
       1.01569 -0.000611587
       1.01549 0.000286832
       1.0147 0.0012349
       1.01426 0.00160352
       1.01342 0.00238796
       1.01272 0.00288351
       1.01194 0.0034297
       1.01118 0.00395414
       1.01039 0.00443906
       1.00977 0.00490565
       1.00907 0.00534874
       1.00832 0.00582924
       1.0079 0.00621531
       0.93482 -0.142728
       0.923502 -0.0625615
       1.0141 -0.109111
       1.04113 -0.0551541
       1.08198 -0.107769
       1.12853 -0.0598377
       1.13625 -0.00706086
       1.12781 0.0476852
       1.08423 0.0927149
       1.04587 0.0939966
       1.00483 0.088352
       0.986169 0.0637068
       0.985122 0.0324647
       0.99039 0.0131064
       0.995547 0.00780981
       1.00095 3.29182e-05
       1.00572 -0.00280677
       1.00941 -0.00416426
       1.0128 -0.0052634
       1.01442 -0.00364282
       1.01652 -0.00453598
       1.01646 -0.00179939
       1.01685 -0.00186836
       1.01662 -0.000603463
       1.01586 0.000427936
       1.01544 0.000838151
       1.01455 0.00177445
       1.01383 0.00226336
       1.013 0.0028875
       1.01221 0.00342641
       1.0114 0.0039576
       1.01059 0.00444453
       1.00993 0.00492744
       1.00923 0.00535701
       1.00846 0.00584696
       1.00803 0.00623434
       0.924866 -0.152018
       0.917029 -0.0643997
       1.00624 -0.121851
       1.04245 -0.063888
       1.08306 -0.122296
       1.13719 -0.0714178
       1.14902 -0.0109044
       1.14048 0.0544505
       1.09025 0.108274
       1.04436 0.112654
       0.997483 0.105039
       0.97787 0.0724129
       0.977326 0.0346712
       0.984795 0.0129301
       0.99142 0.00670887
       0.998053 -0.00167142
       1.00362 -0.00478555
       1.00827 -0.00630932
       1.01233 -0.00742176
       1.01474 -0.00576666
       1.01722 -0.00637542
       1.01739 -0.00320245
       1.0181 -0.00331181
       1.01783 -0.00157808
       1.01712 -0.000498016
       1.01672 2.24662e-05
       1.01573 0.00110918
       1.01503 0.00160608
       1.01413 0.00229742
       1.01331 0.00288405
       1.01245 0.0034259
       1.01163 0.00396723
       1.01077 0.00446509
       1.0101 0.0049379
       1.00938 0.00537411
       1.0086 0.00585618
       1.00815 0.0062425
       0.914912 -0.160534
       0.910572 -0.0655119
       0.997243 -0.135166
       1.04306 -0.0730269
       1.08291 -0.13672
       1.14413 -0.0839126
       1.16107 -0.0149567
       1.15259 0.0626035
       1.09424 0.126983
       1.03879 0.134379
       0.98712 0.123166
       0.968535 0.0814989
       0.968268 0.0364811
       0.978521 0.0120963
       0.986895 0.00515468
       0.994701 -0.00370377
       1.00117 -0.00705072
       1.00683 -0.00880905
       1.01169 -0.00998131
       1.01501 -0.00826119
       1.01788 -0.00847969
       1.01841 -0.00489212
       1.01944 -0.00494001
       1.01912 -0.00266983
       1.01851 -0.0015423
       1.01809 -0.000853712
       1.01702 0.000410338
       1.01631 0.000892534
       1.01535 0.00169441
       1.01447 0.00228988
       1.01358 0.00288554
       1.0127 0.00344155
       1.01183 0.00398804
       1.01096 0.00447562
       1.01026 0.00496154
       1.00953 0.00538417
       1.00873 0.00586738
       1.00826 0.0062516
       0.905131 -0.16823
       0.904213 -0.0659731
       0.987268 -0.148866
       1.04272 -0.0824947
       1.08144 -0.150792
       1.14892 -0.09714
       1.17179 -0.0193538
       1.16421 0.0718579
       1.09757 0.148753
       1.03006 0.159283
       0.972528 0.142156
       0.957784 0.0904579
       0.95854 0.0378477
       0.971515 0.0103598
       0.982068 0.00314188
       0.990874 -0.00605437
       0.998342 -0.00960954
       1.00508 -0.0116991
       1.0109 -0.0129837
       1.0152 -0.011153
       1.01855 -0.0109
       1.01956 -0.00689944
       1.02087 -0.00677186
       1.02054 -0.00389804
       1.02005 -0.00272655
       1.01957 -0.00176796
       1.01841 -0.000342843
       1.01769 0.000151976
       1.01663 0.00106258
       1.01573 0.00167955
       1.01477 0.00230009
       1.01385 0.00291069
       1.01293 0.00346115
       1.01204 0.00400299
       1.01113 0.00450299